99
# CELL(abcABC):   53.43600    53.43330    53.44560    90.00000    90.00000    90.00000  Step:           0  Bead:       0 positions{angstrom}  cell{angstrom}
       O  2.52517e+01  2.67977e+01  2.53185e+01
       H  2.45540e+01  2.69356e+01  2.59498e+01
       H  2.47996e+01  2.64702e+01  2.45835e+01
       O  2.77505e+01  2.78530e+01  2.53651e+01
       H  2.75346e+01  2.86508e+01  2.58010e+01
       H  2.69109e+01  2.73092e+01  2.52131e+01
       O  2.86902e+01  2.54556e+01  2.63714e+01
       H  2.82796e+01  2.63114e+01  2.62197e+01
       H  2.82211e+01  2.50894e+01  2.71613e+01
       O  2.31782e+01  2.66348e+01  2.74554e+01
       H  2.26710e+01  2.74425e+01  2.72459e+01
       H  2.29647e+01  2.64533e+01  2.83636e+01
       O  2.49667e+01  2.42342e+01  2.86603e+01
       H  2.47090e+01  2.42401e+01  2.77325e+01
       H  2.45105e+01  2.34705e+01  2.90288e+01
       O  2.62574e+01  2.97647e+01  2.68751e+01
       H  2.53718e+01  2.95598e+01  2.65377e+01
       H  2.62990e+01  2.94499e+01  2.77724e+01
       O  2.78841e+01  2.33318e+01  2.47916e+01
       H  2.78862e+01  2.42271e+01  2.52206e+01
       H  2.87720e+01  2.32081e+01  2.44070e+01
       O  2.31895e+01  2.61646e+01  2.32924e+01
       H  2.34438e+01  2.64486e+01  2.24525e+01
       H  2.23233e+01  2.65579e+01  2.33785e+01
       O  2.52370e+01  2.93672e+01  2.38737e+01
       H  2.43458e+01  2.96904e+01  2.38636e+01
       H  2.51751e+01  2.84831e+01  2.42840e+01
       O  2.84218e+01  2.45947e+01  2.91724e+01
       H  2.92122e+01  2.50907e+01  2.92349e+01
       H  2.83443e+01  2.41482e+01  3.00094e+01
       O  2.52750e+01  2.41243e+01  2.23695e+01
       H  2.50721e+01  2.38575e+01  2.14519e+01
       H  2.45269e+01  2.46067e+01  2.26308e+01
       O  2.65968e+01  2.86725e+01  2.95587e+01
       H  2.75700e+01  2.85322e+01  2.94504e+01
       H  2.62282e+01  2.77805e+01  2.96278e+01
       O  2.56194e+01  2.62139e+01  3.03999e+01
       H  2.46804e+01  2.64151e+01  3.04620e+01
       H  2.57474e+01  2.54825e+01  2.97011e+01
       O  2.36117e+01  2.98141e+01  2.66039e+01
       H  2.30985e+01  3.01722e+01  2.58653e+01
       H  2.34397e+01  3.03476e+01  2.73721e+01
       O  2.61515e+01  2.15835e+01  2.59662e+01
       H  2.64841e+01  2.13708e+01  2.68140e+01
       H  2.68459e+01  2.20820e+01  2.55987e+01
       O  2.78564e+01  2.50711e+01  2.19778e+01
       H  2.85884e+01  2.46479e+01  2.24412e+01
       H  2.70203e+01  2.47149e+01  2.23072e+01
       O  2.95088e+01  2.85721e+01  2.35106e+01
       H  2.88889e+01  2.81844e+01  2.41747e+01
       H  2.90433e+01  2.84605e+01  2.26967e+01
       O  2.73466e+01  2.17859e+01  2.85465e+01
       H  2.68638e+01  2.10532e+01  2.89788e+01
       H  2.70367e+01  2.25585e+01  2.89775e+01
       O  2.21374e+01  2.24505e+01  2.56101e+01
       H  2.28176e+01  2.18070e+01  2.52850e+01
       H  2.13803e+01  2.19093e+01  2.57617e+01
       O  2.75983e+01  3.05976e+01  2.35226e+01
       H  2.83919e+01  2.99753e+01  2.33900e+01
       H  2.67786e+01  3.00811e+01  2.35543e+01
       O  3.13017e+01  2.62446e+01  2.67615e+01
       H  3.16210e+01  2.57965e+01  2.75610e+01
       H  3.03986e+01  2.60055e+01  2.66538e+01
       O  3.02747e+01  2.42224e+01  2.34533e+01
       H  3.08873e+01  2.40944e+01  2.27250e+01
       H  3.05011e+01  2.51179e+01  2.38289e+01
       O  2.81905e+01  2.78227e+01  2.13660e+01
       H  2.89386e+01  2.79438e+01  2.08117e+01
       H  2.80937e+01  2.68649e+01  2.14778e+01
       O  2.95998e+01  2.88394e+01  2.92248e+01
       H  3.01590e+01  2.85537e+01  2.85231e+01
       H  2.97324e+01  2.82166e+01  2.99649e+01
       O  2.27711e+01  2.64902e+01  3.06235e+01
       H  2.29564e+01  2.71685e+01  3.12792e+01
       H  2.26870e+01  2.56987e+01  3.11749e+01
       O  2.42839e+01  2.12837e+01  2.40080e+01
       H  2.49606e+01  2.16425e+01  2.45836e+01
       H  2.38297e+01  2.20208e+01  2.36374e+01
       O  2.08539e+01  2.50006e+01  2.81969e+01
       H  2.17157e+01  2.52884e+01  2.77753e+01
       H  2.04530e+01  2.44158e+01  2.75995e+01
       O  3.12977e+01  2.67166e+01  2.41325e+01
       H  3.06672e+01  2.74118e+01  2.39200e+01
       H  3.15252e+01  2.69129e+01  2.50429e+01
       O  2.99239e+01  2.20555e+01  2.76511e+01
       H  3.07653e+01  2.24820e+01  2.79199e+01
       H  2.92659e+01  2.27282e+01  2.77694e+01
       O  2.27265e+01  3.07669e+01  2.39800e+01
       H  2.18213e+01  3.07774e+01  2.34993e+01
       H  2.28299e+01  3.16314e+01  2.42978e+01
       O  2.36419e+01  2.17181e+01  2.94135e+01
       H  2.42880e+01  2.10553e+01  2.96703e+01
       H  2.33785e+01  2.15308e+01  2.85150e+01
       O  2.05002e+01  2.74131e+01  2.35551e+01
       H  2.03666e+01  2.83525e+01  2.33972e+01
       H  1.95830e+01  2.70910e+01  2.35383e+01
       O  2.02437e+01  2.84812e+01  2.60845e+01
       H  1.96266e+01  2.81241e+01  2.67301e+01
       H  2.01367e+01  2.79762e+01  2.52412e+01
99
# CELL(abcABC):   53.43600    53.43330    53.44560    90.00000    90.00000    90.00000  Step:        4000  Bead:       0 positions{angstrom}  cell{angstrom}
       O  2.45381e+01  2.55345e+01  2.64347e+01
       H  2.39277e+01  2.60279e+01  2.70022e+01
       H  2.41890e+01  2.57262e+01  2.55633e+01
       O  2.69548e+01  2.68548e+01  2.57833e+01
       H  2.66834e+01  2.76740e+01  2.61913e+01
       H  2.61975e+01  2.63659e+01  2.59624e+01
       O  2.90255e+01  2.51839e+01  2.64289e+01
       H  2.82814e+01  2.57701e+01  2.62765e+01
       H  2.89586e+01  2.48751e+01  2.73438e+01
       O  2.28680e+01  2.68864e+01  2.81573e+01
       H  2.29286e+01  2.78097e+01  2.78083e+01
       H  2.28729e+01  2.70247e+01  2.91355e+01
       O  2.51121e+01  2.42516e+01  2.88998e+01
       H  2.49975e+01  2.45896e+01  2.80069e+01
       H  2.43947e+01  2.35622e+01  2.88751e+01
       O  2.62552e+01  2.91598e+01  2.69727e+01
       H  2.52920e+01  2.92871e+01  2.69757e+01
       H  2.65005e+01  2.88765e+01  2.78448e+01
       O  2.80875e+01  2.29104e+01  2.45140e+01
       H  2.83634e+01  2.36704e+01  2.50579e+01
       H  2.87087e+01  2.22123e+01  2.47647e+01
       O  2.41428e+01  2.63249e+01  2.36542e+01
       H  2.42702e+01  2.67360e+01  2.27848e+01
       H  2.32850e+01  2.59044e+01  2.36280e+01
       O  2.43751e+01  2.92278e+01  2.34803e+01
       H  2.37067e+01  2.97170e+01  2.39384e+01
       H  2.42129e+01  2.83358e+01  2.37110e+01
       O  2.93807e+01  2.46617e+01  2.91991e+01
       H  3.02736e+01  2.49862e+01  2.94387e+01
       H  2.89430e+01  2.43349e+01  2.99961e+01
       O  2.52969e+01  2.38840e+01  2.28447e+01
       H  2.48508e+01  2.40108e+01  2.19669e+01
       H  2.53236e+01  2.47176e+01  2.33132e+01
       O  2.68296e+01  2.88630e+01  2.95687e+01
       H  2.77422e+01  2.86716e+01  2.94053e+01
       H  2.64146e+01  2.81297e+01  3.00159e+01
       O  2.55147e+01  2.66000e+01  3.04454e+01
       H  2.46242e+01  2.68522e+01  3.07063e+01
       H  2.53766e+01  2.57704e+01  2.99532e+01
       O  2.33843e+01  2.94201e+01  2.71590e+01
       H  2.28196e+01  2.96186e+01  2.64078e+01
       H  2.33878e+01  3.02604e+01  2.76554e+01
       O  2.60105e+01  2.16792e+01  2.57972e+01
       H  2.61842e+01  2.16522e+01  2.67372e+01
       H  2.67072e+01  2.22207e+01  2.53828e+01
       O  2.77781e+01  2.50221e+01  2.17300e+01
       H  2.85499e+01  2.48705e+01  2.22831e+01
       H  2.70225e+01  2.46655e+01  2.21146e+01
       O  2.84301e+01  2.84154e+01  2.38692e+01
       H  2.78551e+01  2.79229e+01  2.44325e+01
       H  2.81350e+01  2.81364e+01  2.29795e+01
       O  2.64457e+01  2.18703e+01  2.85410e+01
       H  2.58492e+01  2.13094e+01  2.90869e+01
       H  2.60873e+01  2.27468e+01  2.86424e+01
       O  2.17519e+01  2.31143e+01  2.61724e+01
       H  2.24235e+01  2.27972e+01  2.55731e+01
       H  2.12594e+01  2.23202e+01  2.64516e+01
       O  2.66786e+01  3.07129e+01  2.36274e+01
       H  2.73317e+01  3.00086e+01  2.37579e+01
       H  2.58593e+01  3.02157e+01  2.35191e+01
       O  3.08473e+01  2.69474e+01  2.73084e+01
       H  3.14744e+01  2.65124e+01  2.78534e+01
       H  3.01999e+01  2.63003e+01  2.70484e+01
       O  3.02651e+01  2.50072e+01  2.30526e+01
       H  3.08057e+01  2.44433e+01  2.24544e+01
       H  3.07224e+01  2.58300e+01  2.31201e+01
       O  2.77114e+01  2.77187e+01  2.14640e+01
       H  2.85690e+01  2.80508e+01  2.11751e+01
       H  2.78753e+01  2.67807e+01  2.15727e+01
       O  2.96045e+01  2.86484e+01  2.89398e+01
       H  3.01733e+01  2.81157e+01  2.83461e+01
       H  2.98151e+01  2.83836e+01  2.98218e+01
       O  2.28907e+01  2.69971e+01  3.09894e+01
       H  2.30281e+01  2.77570e+01  3.15826e+01
       H  2.28559e+01  2.62031e+01  3.15242e+01
       O  2.37213e+01  2.21091e+01  2.44725e+01
       H  2.45359e+01  2.20006e+01  2.49880e+01
       H  2.39893e+01  2.27510e+01  2.38126e+01
       O  2.05810e+01  2.51717e+01  2.77864e+01
       H  2.12444e+01  2.58576e+01  2.77965e+01
       H  2.09178e+01  2.45918e+01  2.70761e+01
       O  3.09974e+01  2.84021e+01  2.50183e+01
       H  3.00753e+01  2.82622e+01  2.47260e+01
       H  3.10146e+01  2.78854e+01  2.58103e+01
       O  2.92969e+01  2.11838e+01  2.80773e+01
       H  2.98727e+01  2.14284e+01  2.87915e+01
       H  2.84432e+01  2.15299e+01  2.82770e+01
       O  2.23076e+01  3.04450e+01  2.48624e+01
       H  2.15340e+01  3.02907e+01  2.42973e+01
       H  2.26215e+01  3.13863e+01  2.47679e+01
       O  2.32179e+01  2.22947e+01  2.84278e+01
       H  2.33532e+01  2.13685e+01  2.83655e+01
       H  2.28901e+01  2.25417e+01  2.75671e+01
       O  1.98457e+01  2.73593e+01  2.40818e+01
       H  1.99089e+01  2.82659e+01  2.37165e+01
       H  1.89356e+01  2.70123e+01  2.38390e+01
       O  1.90135e+01  2.86282e+01  2.62697e+01
       H  1.82743e+01  2.81989e+01  2.67436e+01
       H  1.92979e+01  2.81010e+01  2.55167e+01